         Total DFT energy =     -248.319620217574

 Vector   19  Occ=2.000000D+00  E=-2.892968D-01

 Vector   20  Occ=2.000000D+00  E=-2.642043D-01

 Vector   21  Occ=2.000000D+00  E=-2.630225D-01

 Vector   22  Occ=0.000000D+00  E=-2.763974D-02

 Vector   23  Occ=0.000000D+00  E=-1.278773D-02

 Vector   24  Occ=0.000000D+00  E= 1.050567D-01

 Vector   25  Occ=0.000000D+00  E= 1.414547D-01

 Vector   26  Occ=0.000000D+00  E= 1.486146D-01

 Vector   27  Occ=0.000000D+00  E= 1.627616D-01

 Vector   28  Occ=0.000000D+00  E= 1.846803D-01

 Vector   29  Occ=0.000000D+00  E= 1.885210D-01

 Vector   30  Occ=0.000000D+00  E= 2.379538D-01

 Vector   31  Occ=0.000000D+00  E= 2.976466D-01

 Vector   32  Occ=0.000000D+00  E= 3.183907D-01

 Vector   33  Occ=0.000000D+00  E= 3.203118D-01

 Vector   34  Occ=0.000000D+00  E= 4.479101D-01

 Vector   35  Occ=0.000000D+00  E= 4.556273D-01

 Vector   36  Occ=0.000000D+00  E= 5.106033D-01

@ Step       Energy      Delta E   Gmax     Grms     Xrms     Xmax   Walltime
@ ---- ---------------- -------- -------- -------- -------- -------- --------
@    0    -248.31962022  0.0D+00  0.00235  0.00074  0.00000  0.00000     66.9
         Total DFT energy =     -248.319655488130

 Vector    6  Occ=2.000000D+00  E=-1.019825D+01

 Vector    7  Occ=2.000000D+00  E=-9.414795D-01

 Vector    8  Occ=2.000000D+00  E=-8.019311D-01

 Vector    9  Occ=2.000000D+00  E=-7.606464D-01

 Vector   10  Occ=2.000000D+00  E=-6.276897D-01

 Vector   11  Occ=2.000000D+00  E=-6.257042D-01

 Vector   12  Occ=2.000000D+00  E=-5.247267D-01

 Vector   13  Occ=2.000000D+00  E=-4.771731D-01

 Vector   14  Occ=2.000000D+00  E=-4.660479D-01

 Vector   15  Occ=2.000000D+00  E=-4.257095D-01

 Vector   16  Occ=2.000000D+00  E=-4.005249D-01

 Vector   17  Occ=2.000000D+00  E=-3.992646D-01

 Vector   18  Occ=2.000000D+00  E=-3.606123D-01

 Vector   19  Occ=2.000000D+00  E=-2.891770D-01

 Vector   20  Occ=2.000000D+00  E=-2.644952D-01

 Vector   21  Occ=2.000000D+00  E=-2.627194D-01

 Vector   22  Occ=0.000000D+00  E=-2.748293D-02

 Vector   23  Occ=0.000000D+00  E=-1.225647D-02

 Vector   24  Occ=0.000000D+00  E= 1.053457D-01

 Vector   25  Occ=0.000000D+00  E= 1.421785D-01

 Vector   26  Occ=0.000000D+00  E= 1.489041D-01

 Vector   27  Occ=0.000000D+00  E= 1.633289D-01

 Vector   28  Occ=0.000000D+00  E= 1.854869D-01

 Vector   29  Occ=0.000000D+00  E= 1.888730D-01

 Vector   30  Occ=0.000000D+00  E= 2.384768D-01

 Vector   31  Occ=0.000000D+00  E= 2.980381D-01

 Vector   32  Occ=0.000000D+00  E= 3.196114D-01

 Vector   33  Occ=0.000000D+00  E= 3.210529D-01

 Vector   34  Occ=0.000000D+00  E= 4.487386D-01

 Vector   35  Occ=0.000000D+00  E= 4.551978D-01

 Vector   36  Occ=0.000000D+00  E= 5.105337D-01

         Total DFT energy =   -248.319655488130
@    1    -248.31965549 -3.5D-05  0.00038  0.00008  0.00311  0.00812    106.6
         Total DFT energy =     -248.319656357954

                       DFT Final Molecular Orbital Analysis
                       ------------------------------------

 Vector    6  Occ=2.000000D+00  E=-1.019829D+01

 Vector    7  Occ=2.000000D+00  E=-9.415710D-01

 Vector    8  Occ=2.000000D+00  E=-8.019663D-01

 Vector    9  Occ=2.000000D+00  E=-7.606336D-01

 Vector   10  Occ=2.000000D+00  E=-6.277218D-01

 Vector   11  Occ=2.000000D+00  E=-6.256946D-01

 Vector   12  Occ=2.000000D+00  E=-5.247501D-01

 Vector   13  Occ=2.000000D+00  E=-4.771874D-01

 Vector   14  Occ=2.000000D+00  E=-4.660403D-01

 Vector   15  Occ=2.000000D+00  E=-4.256723D-01

 Vector   16  Occ=2.000000D+00  E=-4.005580D-01

 Vector   17  Occ=2.000000D+00  E=-3.993025D-01

 Vector   18  Occ=2.000000D+00  E=-3.605770D-01

 Vector   19  Occ=2.000000D+00  E=-2.891989D-01

 Vector   20  Occ=2.000000D+00  E=-2.644718D-01

 Vector   21  Occ=2.000000D+00  E=-2.627031D-01

 Vector   22  Occ=0.000000D+00  E=-2.743251D-02

 Vector   23  Occ=0.000000D+00  E=-1.224200D-02

 Vector   24  Occ=0.000000D+00  E= 1.053391D-01

 Vector   25  Occ=0.000000D+00  E= 1.422318D-01

 Vector   26  Occ=0.000000D+00  E= 1.489197D-01

 Vector   27  Occ=0.000000D+00  E= 1.633829D-01

 Vector   28  Occ=0.000000D+00  E= 1.854901D-01

 Vector   29  Occ=0.000000D+00  E= 1.888633D-01

 Vector   30  Occ=0.000000D+00  E= 2.385491D-01

 Vector   31  Occ=0.000000D+00  E= 2.980598D-01

 Vector   32  Occ=0.000000D+00  E= 3.196748D-01

 Vector   33  Occ=0.000000D+00  E= 3.211036D-01

 Vector   34  Occ=0.000000D+00  E= 4.487093D-01

 Vector   35  Occ=0.000000D+00  E= 4.552420D-01

 Vector   36  Occ=0.000000D+00  E= 5.105366D-01

     Multipole analysis of the density
     ---------------------------------

     L   x y z        total         alpha         beta         nuclear
     -   - - -        -----         -----         ----         -------
     0   0 0 0     -0.000000    -21.000000    -21.000000     42.000000

     1   1 0 0      0.017491      0.018509      0.018509     -0.019527
     1   0 1 0     -1.198555     -0.602913     -0.602913      0.007271
     1   0 0 1     -0.000423      0.007472      0.007472     -0.015368

     2   2 0 0    -20.511509   -101.097953   -101.097953    181.684396
     2   1 1 0      0.089403      0.008285      0.008285      0.072833
     2   1 0 1     -0.010594      0.100705      0.100705     -0.212004
     2   0 2 0    -26.451653   -101.829300   -101.829300    177.206946
     2   0 1 1      0.002494     -0.021145     -0.021145      0.044783

         Total DFT energy =   -248.319656357954
@    2    -248.31965636 -8.7D-07  0.00007  0.00002  0.00053  0.00127    132.6
@    2    -248.31965636 -8.7D-07  0.00007  0.00002  0.00053  0.00127    132.7

 Output coordinates in angstroms (scale by  1.889725989 to convert to a.u.)

  No.       Tag          Charge          X              Y              Z
 ---- ---------------- ---------- -------------- -------------- --------------
    1 C                    6.0000    -1.19059223    -0.68953161     0.00087547
    2 C                    6.0000    -1.15634799     0.70474519     0.00140127
    3 C                    6.0000     1.13457448     0.73867496    -0.00133812
    4 C                    6.0000     1.20970079    -0.65408572    -0.00140234
    5 C                    6.0000     0.02016454    -1.38549538    -0.00056954
    6 H                    1.0000     0.03667075    -2.47166104    -0.00176201
    7 H                    1.0000     2.17571326    -1.14917701    -0.00363563
    8 H                    1.0000     2.04461136     1.33059962    -0.00225518
    9 H                    1.0000    -2.08291439     1.27038819     0.00263095
   10 H                    1.0000    -2.14137673    -1.21314880     0.00278433
   11 N                    7.0000    -0.02114783     1.42157173     0.00004352

 Total times  cpu:      131.6s     wall:      132.8s
